Program Version,EnergyPlus, Version 9.4.0-998c4b761e, YMD=2022.12.26 14:40
1,5,Environment Title[],Latitude[deg],Longitude[deg],Time Zone[],Elevation[m]
2,8,Day of Simulation[],Month[],Day of Month[],DST Indicator[1=yes 0=no],Hour[],StartMinute[],EndMinute[],DayType
3,5,Cumulative Day of Simulation[],Month[],Day of Month[],DST Indicator[1=yes 0=no],DayType  ! When Daily Report Variables Requested
4,2,Cumulative Days of Simulation[],Month[]  ! When Monthly Report Variables Requested
5,1,Cumulative Days of Simulation[] ! When Run Period Report Variables Requested
6,1,Calendar Year of Simulation[] ! When Annual Report Variables Requested
7,1,Environment,Site Outdoor Air Drybulb Temperature [C] !TimeStep
8,1,LIVING_UNIT1,Zone People Occupant Count [] !TimeStep
211,1,LIVING_UNIT1,Zone Mean Air Temperature [C] !TimeStep
212,1,ATTIC_UNIT1,Zone Mean Air Temperature [C] !TimeStep
360,1,LIVING_UNIT1,Zone Thermostat Cooling Setpoint Temperature [C] !TimeStep
399,1,ATTIC_UNIT1,Zone Thermostat Cooling Setpoint Temperature [C] !TimeStep
547,1,HTGSETP_SCH,Schedule Value [] !TimeStep
548,1,CLGSETP_SCH,Schedule Value [] !TimeStep
1035,1,CENTRAL SYSTEM_UNIT1,Air System Total Cooling Energy [J] !TimeStep
End of Data Dictionary
1,HONOLULU INTL ARPT ANN HTG 99.6% CONDNS DB,  30.29, -97.74,  -6.00, 213.00
2,1, 2,21, 0, 1, 0.00,15.00,WinterDesignDay
7,16.2
8,3.0
211,18.85577381352365
212,11.928003029827434
547,15.0
548,27.08
360,27.08
399,0.0
1035,0.0
2,1, 2,21, 0, 1,15.00,30.00,WinterDesignDay
7,16.2
8,3.0
211,18.979778290777206
212,11.92840124763387
547,15.0
548,27.44
360,27.44
399,0.0
1035,0.0
2,1, 2,21, 0, 1,30.00,45.00,WinterDesignDay
7,16.2
8,3.0
211,19.036660910657646
212,11.928582436089178
547,15.0
548,22.19
360,22.19
399,0.0
1035,0.0
2,1, 2,21, 0, 1,45.00,60.00,WinterDesignDay
7,16.2
8,3.0
211,19.037797474176828
212,11.9285668482487
547,15.0
548,26.8
360,26.8
399,0.0
1035,0.0
2,1, 2,21, 0, 2, 0.00,15.00,WinterDesignDay
7,16.2
8,0.0
211,18.86484846263598
212,11.928348649383869
547,15.0
548,21.82
360,21.82
399,0.0
1035,0.0
2,1, 2,21, 0, 2,15.00,30.00,WinterDesignDay
7,16.2
8,0.0
211,18.677938321244136
212,11.927948302841936
547,15.0
548,25.2
360,25.2
399,0.0
1035,0.0
2,1, 2,21, 0, 2,30.00,45.00,WinterDesignDay
7,16.2
8,0.0
211,18.562210279808928
212,11.927416240598225
547,15.0
548,27.78
360,27.78
399,0.0
1035,0.0
2,1, 2,21, 0, 2,45.00,60.00,WinterDesignDay
7,16.2
8,0.0
211,18.50756890734538
212,11.926792783105235
547,15.0
548,26.48
360,26.48
399,0.0
1035,0.0
2,1, 2,21, 0, 3, 0.00,15.00,WinterDesignDay
7,16.2
8,0.0
211,18.47696701009036
212,11.926092732428748
547,15.0
548,27.92
360,27.92
399,0.0
1035,0.0
2,1, 2,21, 0, 3,15.00,30.00,WinterDesignDay
7,16.2
8,0.0
211,18.449169084661535
212,11.925312990952158
547,15.0
548,21.76
360,21.76
399,0.0
1035,0.0
2,1, 2,21, 0, 3,30.00,45.00,WinterDesignDay
7,16.2
8,0.0
211,18.419665874741278
212,11.924457365202093
547,15.0
548,25.18
360,25.18
399,0.0
1035,0.0
2,1, 2,21, 0, 3,45.00,60.00,WinterDesignDay
7,16.2
8,0.0
211,18.390472575151965
212,11.923512983007603
547,15.0
548,26.97
360,26.97
399,0.0
1035,0.0
2,1, 2,21, 0, 4, 0.00,15.00,WinterDesignDay
7,16.2
8,0.0
211,18.36251480021822
212,11.92246897353864
547,15.0
548,22.06
360,22.06
399,0.0
1035,0.0
2,1, 2,21, 0, 4,15.00,30.00,WinterDesignDay
7,16.2
8,0.0
211,18.33657896573364
212,11.921329478136851
547,15.0
548,20.81
360,20.81
399,0.0
1035,0.0
2,1, 2,21, 0, 4,30.00,45.00,WinterDesignDay
7,16.2
8,0.0
211,18.312772159328526
212,11.920106712883446
547,15.0
548,25.2
360,25.2
399,0.0
1035,0.0
2,1, 2,21, 0, 4,45.00,60.00,WinterDesignDay
7,16.2
8,0.0
211,18.29077265618964
212,11.918813902670666
547,15.0
548,26.08
360,26.08
399,0.0
1035,0.0
2,1, 2,21, 0, 5, 0.00,15.00,WinterDesignDay
7,16.2
8,0.0
211,18.277141670284047
212,11.917463841324654
547,15.0
548,20.5
360,20.5
399,0.0
1035,0.0
2,1, 2,21, 0, 5,15.00,30.00,WinterDesignDay
7,16.2
8,0.0
211,18.26711752984846
212,11.916069692016573
547,15.0
548,27.9
360,27.9
399,0.0
1035,0.0
2,1, 2,21, 0, 5,30.00,45.00,WinterDesignDay
7,16.2
8,0.0
211,18.25651495529819
212,11.914645832970456
547,15.0
548,24.1
360,24.1
399,0.0
1035,0.0
2,1, 2,21, 0, 5,45.00,60.00,WinterDesignDay
7,16.2
8,0.0
211,18.244584503402679
212,11.913207803257138
547,15.0
548,20.08
360,20.08
399,0.0
1035,0.0
2,1, 2,21, 0, 6, 0.00,15.00,WinterDesignDay
7,16.2
8,0.0
211,18.252042210678686
212,11.911814488782472
547,15.0
548,20.79
360,20.79
399,0.0
1035,0.0
2,1, 2,21, 0, 6,15.00,30.00,WinterDesignDay
7,16.2
8,0.0
211,18.266981616929355
212,11.910548546236973
547,15.0
548,23.9
360,23.9
399,0.0
1035,0.0
2,1, 2,21, 0, 6,30.00,45.00,WinterDesignDay
7,16.2
8,0.0
211,18.27758441765962
212,11.909341652700347
547,15.0
548,25.44
360,25.44
399,0.0
1035,0.0
2,1, 2,21, 0, 6,45.00,60.00,WinterDesignDay
7,16.2
8,0.0
211,18.282483068200276
212,11.908127337440885
547,15.0
548,22.06
360,22.06
399,0.0
1035,0.0
2,1, 2,21, 0, 7, 0.00,15.00,WinterDesignDay
7,16.2
8,0.0
211,18.297983086399094
212,11.906789028091567
547,15.0
548,25.49
360,25.49
399,0.0
1035,0.0
2,1, 2,21, 0, 7,15.00,30.00,WinterDesignDay
7,16.2
8,0.0
211,18.317740708667676
212,11.905491956294912
547,15.0
548,24.34
360,24.34
399,0.0
1035,0.0
2,1, 2,21, 0, 7,30.00,45.00,WinterDesignDay
7,16.2
8,0.0
211,18.334092700083745
212,11.904353908936145
547,15.0
548,24.47
360,24.47
399,0.0
1035,0.0
2,1, 2,21, 0, 7,45.00,60.00,WinterDesignDay
7,16.2
8,0.0
211,18.345562818409097
212,11.903358667950874
547,15.0
548,24.06
360,24.06
399,0.0
1035,0.0
2,1, 2,21, 0, 8, 0.00,15.00,WinterDesignDay
7,16.2
8,0.0
211,18.357105864526074
212,11.902452201104869
547,15.0
548,25.19
360,25.19
399,0.0
1035,0.0
2,1, 2,21, 0, 8,15.00,30.00,WinterDesignDay
7,16.2
8,0.0
211,18.369747839478746
212,11.901675028364679
547,15.0
548,21.3
360,21.3
399,0.0
1035,0.0
2,1, 2,21, 0, 8,30.00,45.00,WinterDesignDay
7,16.2
8,0.0
211,18.383139605437799
212,11.901043990140604
547,15.0
548,24.09
360,24.09
399,0.0
1035,0.0
2,1, 2,21, 0, 8,45.00,60.00,WinterDesignDay
7,16.2
8,0.0
211,18.39511106625994
212,11.900541617870948
547,15.0
548,25.66
360,25.66
399,0.0
1035,0.0
2,1, 2,21, 0, 9, 0.00,15.00,WinterDesignDay
7,16.2
8,0.0
211,18.381752421818587
212,11.90014576366917
547,15.0
548,24.89
360,24.89
399,0.0
1035,0.0
2,1, 2,21, 0, 9,15.00,30.00,WinterDesignDay
7,16.2
8,0.0
211,18.359621584491028
212,11.899865914225478
547,15.0
548,20.32
360,20.32
399,0.0
1035,0.0
2,1, 2,21, 0, 9,30.00,45.00,WinterDesignDay
7,16.2
8,0.0
211,18.3432422558903
212,11.899694575356556
547,15.0
548,25.08
360,25.08
399,0.0
1035,0.0
2,1, 2,21, 0, 9,45.00,60.00,WinterDesignDay
7,16.2
8,0.0
211,18.33519472979627
212,11.899605024224977
547,15.0
548,25.44
360,25.44
399,0.0
1035,0.0
2,1, 2,21, 0,10, 0.00,15.00,WinterDesignDay
7,16.2
8,0.0
211,18.31982581311418
212,11.899570356090015
547,15.0
548,21.55
360,21.55
399,0.0
1035,0.0
2,1, 2,21, 0,10,15.00,30.00,WinterDesignDay
7,16.2
8,0.0
211,18.301166073766429
212,11.89956849967526
547,15.0
548,26.35
360,26.35
399,0.0
1035,0.0
2,1, 2,21, 0,10,30.00,45.00,WinterDesignDay
7,16.2
8,0.0
211,18.284904111983996
212,11.899580143747955
547,15.0
548,25.52
360,25.52
399,0.0
1035,0.0
2,1, 2,21, 0,10,45.00,60.00,WinterDesignDay
7,16.2
8,0.0
211,18.27324445126617
212,11.899587446156089
547,15.0
548,23.12
360,23.12
399,0.0
1035,0.0
2,1, 2,21, 0,11, 0.00,15.00,WinterDesignDay
7,16.2
8,0.0
211,18.26556646233332
212,11.89957518054996
547,15.0
548,22.95
360,22.95
399,0.0
1035,0.0
2,1, 2,21, 0,11,15.00,30.00,WinterDesignDay
7,16.2
8,0.0
211,18.258861323734398
212,11.899532447546557
547,15.0
548,22.38
360,22.38
399,0.0
1035,0.0
2,1, 2,21, 0,11,30.00,45.00,WinterDesignDay
7,16.2
8,0.0
211,18.251788787588013
212,11.89945309102116
547,15.0
548,23.82
360,23.82
399,0.0
1035,0.0
2,1, 2,21, 0,11,45.00,60.00,WinterDesignDay
7,16.2
8,0.0
211,18.244441234461506
212,11.899334921111759
547,15.0
548,26.34
360,26.34
399,0.0
1035,0.0
2,1, 2,21, 0,12, 0.00,15.00,WinterDesignDay
7,16.2
8,0.0
211,18.237888372568397
212,11.89917862960061
547,15.0
548,20.33
360,20.33
399,0.0
1035,0.0
2,1, 2,21, 0,12,15.00,30.00,WinterDesignDay
7,16.2
8,0.0
211,18.232855502403486
212,11.898986864249329
547,15.0
548,27.57
360,27.57
399,0.0
1035,0.0
2,1, 2,21, 0,12,30.00,45.00,WinterDesignDay
7,16.2
8,0.0
211,18.228142898677534
212,11.898763511009803
547,15.0
548,21.11
360,21.11
399,0.0
1035,0.0
2,1, 2,21, 0,12,45.00,60.00,WinterDesignDay
7,16.2
8,0.0
211,18.223130687082937
212,11.89851311902874
547,15.0
548,24.89
360,24.89
399,0.0
1035,0.0
2,1, 2,21, 0,13, 0.00,15.00,WinterDesignDay
7,16.2
8,0.0
211,18.217181691879284
212,11.898240446292624
547,15.0
548,24.45
360,24.45
399,0.0
1035,0.0
2,1, 2,21, 0,13,15.00,30.00,WinterDesignDay
7,16.2
8,0.0
211,18.211052143397479
212,11.897950128857208
547,15.0
548,27.81
360,27.81
399,0.0
1035,0.0
2,1, 2,21, 0,13,30.00,45.00,WinterDesignDay
7,16.2
8,0.0
211,18.20547136140585
212,11.89764641207651
547,15.0
548,27.28
360,27.28
399,0.0
1035,0.0
2,1, 2,21, 0,13,45.00,60.00,WinterDesignDay
7,16.2
8,0.0
211,18.20176151693903
212,11.897332979943583
547,15.0
548,22.26
360,22.26
399,0.0
1035,0.0
2,1, 2,21, 0,14, 0.00,15.00,WinterDesignDay
7,16.2
8,0.0
211,18.199472378895586
212,11.897012955823739
547,15.0
548,23.69
360,23.69
399,0.0
1035,0.0
2,1, 2,21, 0,14,15.00,30.00,WinterDesignDay
7,16.2
8,0.0
211,18.19698490032039
212,11.896711042807711
547,15.0
548,25.78
360,25.78
399,0.0
1035,0.0
2,1, 2,21, 0,14,30.00,45.00,WinterDesignDay
7,16.2
8,0.0
211,18.193812918726836
212,11.896418989652228
547,15.0
548,25.7
360,25.7
399,0.0
1035,0.0
2,1, 2,21, 0,14,45.00,60.00,WinterDesignDay
7,16.2
8,0.0
211,18.19023517665681
212,11.896120098575551
547,15.0
548,25.02
360,25.02
399,0.0
1035,0.0
2,1, 2,21, 0,15, 0.00,15.00,WinterDesignDay
7,16.2
8,0.0
211,18.188678424220379
212,11.895813845295999
547,15.0
548,25.64
360,25.64
399,0.0
1035,0.0
2,1, 2,21, 0,15,15.00,30.00,WinterDesignDay
7,16.2
8,0.0
211,18.187774467464889
212,11.895507367545863
547,15.0
548,24.75
360,24.75
399,0.0
1035,0.0
2,1, 2,21, 0,15,30.00,45.00,WinterDesignDay
7,16.2
8,0.0
211,18.187391689651699
212,11.895205455964625
547,15.0
548,23.74
360,23.74
399,0.0
1035,0.0
2,1, 2,21, 0,15,45.00,60.00,WinterDesignDay
7,16.2
8,0.0
211,18.186944322608256
212,11.894909918161197
547,15.0
548,21.73
360,21.73
399,0.0
1035,0.0
2,1, 2,21, 0,16, 0.00,15.00,WinterDesignDay
7,16.2
8,0.0
211,18.19492591376127
212,11.89459984951167
547,15.0
548,20.2
360,20.2
399,0.0
1035,0.0
2,1, 2,21, 0,16,15.00,30.00,WinterDesignDay
7,16.2
8,0.0
211,18.205670559700363
212,11.894290059476344
547,15.0
548,22.56
360,22.56
399,0.0
1035,0.0
2,1, 2,21, 0,16,30.00,45.00,WinterDesignDay
7,16.2
8,0.0
211,18.214045544473117
212,11.894002724610365
547,15.0
548,24.71
360,24.71
399,0.0
1035,0.0
2,1, 2,21, 0,16,45.00,60.00,WinterDesignDay
7,16.2
8,0.0
211,18.21931671786386
212,11.893744257190907
547,15.0
548,20.42
360,20.42
399,0.0
1035,0.0
2,1, 2,21, 0,17, 0.00,15.00,WinterDesignDay
7,16.2
8,0.0
211,18.25153302685708
212,11.893505121654892
547,15.0
548,27.34
360,27.34
399,0.0
1035,0.0
2,1, 2,21, 0,17,15.00,30.00,WinterDesignDay
7,16.2
8,0.0
211,18.293896293866156
212,11.893298955930585
547,15.0
548,22.54
360,22.54
399,0.0
1035,0.0
2,1, 2,21, 0,17,30.00,45.00,WinterDesignDay
7,16.2
8,0.0
211,18.32992859188037
212,11.893142625993221
547,15.0
548,23.49
360,23.49
399,0.0
1035,0.0
2,1, 2,21, 0,17,45.00,60.00,WinterDesignDay
7,16.2
8,0.0
211,18.356845568351998
212,11.893050314051008
547,15.0
548,27.67
360,27.67
399,0.0
1035,0.0
2,1, 2,21, 0,18, 0.00,15.00,WinterDesignDay
7,16.2
8,0.0
211,18.407829501452555
212,11.89303824097526
547,15.0
548,23.11
360,23.11
399,0.0
1035,0.0
2,1, 2,21, 0,18,15.00,30.00,WinterDesignDay
7,16.2
8,0.0
211,18.468135593779534
212,11.89312266931811
547,15.0
548,27.82
360,27.82
399,0.0
1035,0.0
2,1, 2,21, 0,18,30.00,45.00,WinterDesignDay
7,16.2
8,0.0
211,18.52067584588854
212,11.893319482715937
547,15.0
548,21.86
360,21.86
399,0.0
1035,0.0
2,1, 2,21, 0,18,45.00,60.00,WinterDesignDay
7,16.2
8,0.0
211,18.562126932152404
212,11.893646698130283
547,15.0
548,25.37
360,25.37
399,0.0
1035,0.0
2,1, 2,21, 0,19, 0.00,15.00,WinterDesignDay
7,16.2
8,0.0
211,18.61725710695126
212,11.89412150151058
547,15.0
548,21.8
360,21.8
399,0.0
1035,0.0
2,1, 2,21, 0,19,15.00,30.00,WinterDesignDay
7,16.2
8,0.0
211,18.67651872687871
212,11.894754704308353
547,15.0
548,20.33
360,20.33
399,0.0
1035,0.0
2,1, 2,21, 0,19,30.00,45.00,WinterDesignDay
7,16.2
8,0.0
211,18.728932425549915
212,11.895550694743126
547,15.0
548,23.12
360,23.12
399,0.0
1035,0.0
2,1, 2,21, 0,19,45.00,60.00,WinterDesignDay
7,16.2
8,0.0
211,18.772170822195663
212,11.896510457528825
547,15.0
548,26.81
360,26.81
399,0.0
1035,0.0
2,1, 2,21, 0,20, 0.00,15.00,WinterDesignDay
7,16.2
8,0.0
211,18.81554508968282
212,11.897631655192056
547,15.0
548,22.51
360,22.51
399,0.0
1035,0.0
2,1, 2,21, 0,20,15.00,30.00,WinterDesignDay
7,16.2
8,0.0
211,18.856624852513833
212,11.898906851769063
547,15.0
548,26.2
360,26.2
399,0.0
1035,0.0
2,1, 2,21, 0,20,30.00,45.00,WinterDesignDay
7,16.2
8,0.0
211,18.89299527255963
212,11.900323361822796
547,15.0
548,25.68
360,25.68
399,0.0
1035,0.0
2,1, 2,21, 0,20,45.00,60.00,WinterDesignDay
7,16.2
8,0.0
211,18.92644963504833
212,11.901864827940699
547,15.0
548,24.37
360,24.37
399,0.0
1035,0.0
2,1, 2,21, 0,21, 0.00,15.00,WinterDesignDay
7,16.2
8,0.0
211,18.958358195320505
212,11.903489220016155
547,15.0
548,26.51
360,26.51
399,0.0
1035,0.0
2,1, 2,21, 0,21,15.00,30.00,WinterDesignDay
7,16.2
8,0.0
211,18.987334892716715
212,11.905189880558507
547,15.0
548,22.84
360,22.84
399,0.0
1035,0.0
2,1, 2,21, 0,21,30.00,45.00,WinterDesignDay
7,16.2
8,0.0
211,19.013305207471395
212,11.906965954053265
547,15.0
548,20.56
360,20.56
399,0.0
1035,0.0
2,1, 2,21, 0,21,45.00,60.00,WinterDesignDay
7,16.2
8,0.0
211,19.03699602494454
212,11.90879919092283
547,15.0
548,21.35
360,21.35
399,0.0
1035,0.0
2,1, 2,21, 0,22, 0.00,15.00,WinterDesignDay
7,16.2
8,0.0
211,19.040578006733648
212,11.910608158766769
547,15.0
548,26.14
360,26.14
399,0.0
1035,0.0
2,1, 2,21, 0,22,15.00,30.00,WinterDesignDay
7,16.2
8,0.0
211,19.037329294238213
212,11.912403917588689
547,15.0
548,26.48
360,26.48
399,0.0
1035,0.0
2,1, 2,21, 0,22,30.00,45.00,WinterDesignDay
7,16.2
8,0.0
211,19.036972810190148
212,11.914216376707439
547,15.0
548,25.95
360,25.95
399,0.0
1035,0.0
2,1, 2,21, 0,22,45.00,60.00,WinterDesignDay
7,16.2
8,0.0
211,19.041057243227756
212,11.916028789864355
547,15.0
548,21.38
360,21.38
399,0.0
1035,0.0
2,1, 2,21, 0,23, 0.00,15.00,WinterDesignDay
7,16.2
8,0.0
211,19.012301625483958
212,11.917886973220055
547,15.0
548,25.36
360,25.36
399,0.0
1035,0.0
2,1, 2,21, 0,23,15.00,30.00,WinterDesignDay
7,16.2
8,0.0
211,18.97072152600453
212,11.9196866001094
547,15.0
548,27.93
360,27.93
399,0.0
1035,0.0
2,1, 2,21, 0,23,30.00,45.00,WinterDesignDay
7,16.2
8,0.0
211,18.936677588485474
212,11.921352474514496
547,15.0
548,27.62
360,27.62
399,0.0
1035,0.0
2,1, 2,21, 0,23,45.00,60.00,WinterDesignDay
7,16.2
8,0.0
211,18.914165906334948
212,11.92287817793763
547,15.0
548,23.54
360,23.54
399,0.0
1035,0.0
2,1, 2,21, 0,24, 0.00,15.00,WinterDesignDay
7,16.2
8,0.0
211,18.871513824123836
212,11.924277607832828
547,15.0
548,21.71
360,21.71
399,0.0
1035,0.0
2,1, 2,21, 0,24,15.00,30.00,WinterDesignDay
7,16.2
8,0.0
211,18.821252400315488
212,11.925518924882848
547,15.0
548,25.3
360,25.3
399,0.0
1035,0.0
2,1, 2,21, 0,24,30.00,45.00,WinterDesignDay
7,16.2
8,0.0
211,18.777824155904388
212,11.926565219364284
547,15.0
548,23.79
360,23.79
399,0.0
1035,0.0
2,1, 2,21, 0,24,45.00,60.00,WinterDesignDay
7,16.2
8,0.0
211,18.744233045561474
212,11.927389892171738
547,15.0
548,27.04
360,27.04
399,0.0
1035,0.0
1,HONOLULU INTL ARPT ANN CLG .4% CONDNS DB=>MWB,  30.29, -97.74,  -6.00, 213.00
2,1, 8,21, 0, 1, 0.00,15.00,SummerDesignDay
7,26.271500000000004
8,3.0
211,24.780740470189224
212,24.64646505625929
547,15.0
548,27.08
360,27.08
399,0.0
1035,0.0
2,1, 8,21, 0, 1,15.00,30.00,SummerDesignDay
7,26.165000000000004
8,3.0
211,25.029472205486564
212,24.52362558217343
547,15.0
548,27.44
360,27.44
399,0.0
1035,0.0
2,1, 8,21, 0, 1,30.00,45.00,SummerDesignDay
7,26.058500000000003
8,3.0
211,22.544056800523618
212,24.380609256626657
547,15.0
548,22.19
360,22.19
399,0.0
1035,4872684.647741505
2,1, 8,21, 0, 1,45.00,60.00,SummerDesignDay
7,25.952000000000007
8,3.0
211,23.858020566634765
212,24.271981331455707
547,15.0
548,26.8
360,26.8
399,0.0
1035,0.0
2,1, 8,21, 0, 2, 0.00,15.00,SummerDesignDay
7,25.881000000000005
8,0.0
211,22.008097885387007
212,24.144660550262257
547,15.0
548,21.82
360,21.82
399,0.0
1035,4853256.742461246
2,1, 8,21, 0, 2,15.00,30.00,SummerDesignDay
7,25.810000000000004
8,0.0
211,23.213434866679259
212,24.05053975850969
547,15.0
548,25.2
360,25.2
399,0.0
1035,0.0
2,1, 8,21, 0, 2,30.00,45.00,SummerDesignDay
7,25.739000000000006
8,0.0
211,23.74297258732849
212,23.940488385906009
547,15.0
548,27.78
360,27.780000000000006
399,0.0
1035,0.0
2,1, 8,21, 0, 2,45.00,60.00,SummerDesignDay
7,25.668000000000004
8,0.0
211,23.972374689978467
212,23.858383629816
547,15.0
548,26.48
360,26.48
399,0.0
1035,0.0
2,1, 8,21, 0, 3, 0.00,15.00,SummerDesignDay
7,25.614750000000006
8,0.0
211,24.512165656454937
212,23.73316302514951
547,15.0
548,27.92
360,27.92
399,0.0
1035,0.0
2,1, 8,21, 0, 3,15.00,30.00,SummerDesignDay
7,25.561500000000004
8,0.0
211,22.109956172247203
212,23.67203321504503
547,15.0
548,21.76
360,21.759999999999996
399,0.0
1035,4467750.49446497
2,1, 8,21, 0, 3,30.00,45.00,SummerDesignDay
7,25.508250000000005
8,0.0
211,22.288634620907329
212,23.599406930271408
547,15.0
548,25.18
360,25.180000000000008
399,0.0
1035,0.0
2,1, 8,21, 0, 3,45.00,60.00,SummerDesignDay
7,25.455000000000007
8,0.0
211,23.181830812346214
212,23.533376492076547
547,15.0
548,26.97
360,26.97
399,0.0
1035,0.0
2,1, 8,21, 0, 4, 0.00,15.00,SummerDesignDay
7,25.401750000000005
8,0.0
211,22.10173646413286
212,23.474887189755749
547,15.0
548,22.06
360,22.06
399,0.0
1035,3228314.0494175858
2,1, 8,21, 0, 4,15.00,30.00,SummerDesignDay
7,25.3485
8,0.0
211,20.96163522734261
212,23.409984657412637
547,15.0
548,20.81
360,20.81
399,0.0
1035,6718696.175390377
2,1, 8,21, 0, 4,30.00,45.00,SummerDesignDay
7,25.295250000000004
8,0.0
211,22.24787066863677
212,23.330813121110475
547,15.0
548,25.2
360,25.2
399,0.0
1035,0.0
2,1, 8,21, 0, 4,45.00,60.00,SummerDesignDay
7,25.242000000000006
8,0.0
211,22.742737984011808
212,23.281360901901424
547,15.0
548,26.08
360,26.080000000000003
399,0.0
1035,0.0
2,1, 8,21, 0, 5, 0.00,15.00,SummerDesignDay
7,25.206500000000007
8,0.0
211,20.77498093520787
212,23.22770839565626
547,15.0
548,20.5
360,20.5
399,0.0
1035,6054898.57986412
2,1, 8,21, 0, 5,15.00,30.00,SummerDesignDay
7,25.171000000000004
8,0.0
211,22.139068015501615
212,23.181745842856168
547,15.0
548,27.9
360,27.9
399,0.0
1035,0.0
2,1, 8,21, 0, 5,30.00,45.00,SummerDesignDay
7,25.135500000000005
8,0.0
211,22.69493560145543
212,23.128159267664203
547,15.0
548,24.1
360,24.1
399,0.0
1035,0.0
2,1, 8,21, 0, 5,45.00,60.00,SummerDesignDay
7,25.1
8,0.0
211,20.458891776273576
212,23.08093657961046
547,15.0
548,20.08
360,20.080000000000028
399,0.0
1035,6110707.835428614
2,1, 8,21, 0, 6, 0.00,15.00,SummerDesignDay
7,25.135500000000005
8,0.0
211,20.7754563482087
212,23.051942667496019
547,15.0
548,20.79
360,20.79
399,0.0
1035,3654398.888577963
2,1, 8,21, 0, 6,15.00,30.00,SummerDesignDay
7,25.171000000000004
8,0.0
211,21.935460483541776
212,23.026432702358976
547,15.0
548,23.9
360,23.900000000000003
399,0.0
1035,0.0
2,1, 8,21, 0, 6,30.00,45.00,SummerDesignDay
7,25.206500000000007
8,0.0
211,22.40123560234183
212,23.01594605084731
547,15.0
548,25.44
360,25.44
399,0.0
1035,0.0
2,1, 8,21, 0, 6,45.00,60.00,SummerDesignDay
7,25.242000000000006
8,0.0
211,22.122597070698185
212,23.01243642490097
547,15.0
548,22.06
360,22.06
399,0.0
1035,2382102.9772366245
2,1, 8,21, 0, 7, 0.00,15.00,SummerDesignDay
7,25.36625
8,0.0
211,22.820972008485034
212,23.07846970125123
547,15.0
548,25.49
360,25.49
399,0.0
1035,0.0
2,1, 8,21, 0, 7,15.00,30.00,SummerDesignDay
7,25.490500000000006
8,0.0
211,23.292674836010723
212,23.282230475490655
547,15.0
548,24.34
360,24.34
399,0.0
1035,0.0
2,1, 8,21, 0, 7,30.00,45.00,SummerDesignDay
7,25.614750000000006
8,0.0
211,24.11445032351775
212,23.709343722405355
547,15.0
548,24.47
360,24.47
399,0.0
1035,0.0
2,1, 8,21, 0, 7,45.00,60.00,SummerDesignDay
7,25.739000000000006
8,0.0
211,24.060242220278437
212,24.141998685556783
547,15.0
548,24.06
360,24.06
399,0.0
1035,868543.9714051294
2,1, 8,21, 0, 8, 0.00,15.00,SummerDesignDay
7,26.040750000000004
8,0.0
211,24.568828101246277
212,24.83790611517187
547,15.0
548,25.19
360,25.189999999999999
399,0.0
1035,0.0
2,1, 8,21, 0, 8,15.00,30.00,SummerDesignDay
7,26.342500000000006
8,0.0
211,21.89660315983133
212,25.633096276749059
547,15.0
548,21.3
360,21.3
399,0.0
1035,7532620.42515572
2,1, 8,21, 0, 8,30.00,45.00,SummerDesignDay
7,26.644250000000004
8,0.0
211,23.551549615767457
212,26.91893439923972
547,15.0
548,24.09
360,24.090000000000005
399,0.0
1035,532055.279860468
2,1, 8,21, 0, 8,45.00,60.00,SummerDesignDay
7,26.946000000000006
8,0.0
211,24.287370837943553
212,28.116328745791085
547,15.0
548,25.66
360,25.66000000000004
399,0.0
1035,0.0
2,1, 8,21, 0, 9, 0.00,15.00,SummerDesignDay
7,27.283250000000004
8,0.0
211,24.7690185616894
212,29.642446231281317
547,15.0
548,24.89
360,24.89
399,0.0
1035,790375.6022305834
2,1, 8,21, 0, 9,15.00,30.00,SummerDesignDay
7,27.620500000000005
8,0.0
211,21.61781548266999
212,31.104852314128015
547,15.0
548,20.32
360,20.320000000000016
399,0.0
1035,10163299.947963594
2,1, 8,21, 0, 9,30.00,45.00,SummerDesignDay
7,27.957750000000006
8,0.0
211,23.72489071113308
212,32.6661108706458
547,15.0
548,25.08
360,25.080000000000007
399,0.0
1035,0.0
2,1, 8,21, 0, 9,45.00,60.00,SummerDesignDay
7,28.295
8,0.0
211,25.250507938623835
212,34.468263217826059
547,15.0
548,25.44
360,25.440000000000006
399,0.0
1035,470986.0942015702
2,1, 8,21, 0,10, 0.00,15.00,SummerDesignDay
7,28.596750000000005
8,0.0
211,22.31348264595685
212,35.842617037513239
547,15.0
548,21.55
360,21.549999999999998
399,0.0
1035,8374194.6790167069
2,1, 8,21, 0,10,15.00,30.00,SummerDesignDay
7,28.898500000000003
8,0.0
211,24.37923134593156
212,37.31716942530197
547,15.0
548,26.35
360,26.349999999999999
399,0.0
1035,0.0
2,1, 8,21, 0,10,30.00,45.00,SummerDesignDay
7,29.200250000000005
8,0.0
211,25.51666773913614
212,38.975838301040258
547,15.0
548,25.52
360,25.520000000000008
399,0.0
1035,1210382.9082067563
2,1, 8,21, 0,10,45.00,60.00,SummerDesignDay
7,29.502000000000004
8,0.0
211,23.427004762146514
212,40.25941932740021
547,15.0
548,23.12
360,23.12000000000004
399,0.0
1035,6589202.664834206
2,1, 8,21, 0,11, 0.00,15.00,SummerDesignDay
7,29.768250000000003
8,0.0
211,22.97771294422034
212,41.592564327093388
547,15.0
548,22.95
360,22.95
399,0.0
1035,6933685.548474708
2,1, 8,21, 0,11,15.00,30.00,SummerDesignDay
7,30.0345
8,0.0
211,22.403631137793235
212,43.040214850228327
547,15.0
548,22.38
360,22.38
399,0.0
1035,7382833.629067693
2,1, 8,21, 0,11,30.00,45.00,SummerDesignDay
7,30.300750000000006
8,0.0
211,23.669151273779549
212,44.263225994801448
547,15.0
548,23.82
360,23.82
399,0.0
1035,3069673.3344568705
2,1, 8,21, 0,11,45.00,60.00,SummerDesignDay
7,30.567000000000005
8,0.0
211,25.279442001011135
212,45.311759056610728
547,15.0
548,26.34
360,26.340000000000047
399,0.0
1035,0.0
2,1, 8,21, 0,12, 0.00,15.00,SummerDesignDay
7,30.744500000000003
8,0.0
211,21.654872159522119
212,46.3501800134547
547,15.0
548,20.33
360,20.329999999999996
399,0.0
1035,8904759.209684378
2,1, 8,21, 0,12,15.00,30.00,SummerDesignDay
7,30.922000000000005
8,0.0
211,24.39157511454196
212,47.29590202353051
547,15.0
548,27.57
360,27.57
399,0.0
1035,0.0
2,1, 8,21, 0,12,30.00,45.00,SummerDesignDay
7,31.099500000000004
8,0.0
211,22.264947688543488
212,48.25059676685052
547,15.0
548,21.11
360,21.11000000000001
399,0.0
1035,8841101.957670292
2,1, 8,21, 0,12,45.00,60.00,SummerDesignDay
7,31.277000000000006
8,0.0
211,23.961576713988554
212,49.0105941800883
547,15.0
548,24.89
360,24.890000000000005
399,0.0
1035,955424.0950525466
2,1, 8,21, 0,13, 0.00,15.00,SummerDesignDay
7,31.419000000000005
8,0.0
211,24.3978490953538
212,49.59519776541365
547,15.0
548,24.45
360,24.449999999999997
399,0.0
1035,2182902.222912791
2,1, 8,21, 0,13,15.00,30.00,SummerDesignDay
7,31.561000000000005
8,0.0
211,25.899747382988858
212,50.16027507488259
547,15.0
548,27.81
360,27.810000000000004
399,0.0
1035,0.0
2,1, 8,21, 0,13,30.00,45.00,SummerDesignDay
7,31.703000000000004
8,0.0
211,27.22029586022825
212,50.67686988609909
547,15.0
548,27.28
360,27.28
399,0.0
1035,664175.9788223148
2,1, 8,21, 0,13,45.00,60.00,SummerDesignDay
7,31.845000000000004
8,0.0
211,23.460628285056264
212,51.00500723774732
547,15.0
548,22.26
360,22.260000000000049
399,0.0
1035,8691529.677130335
2,1, 8,21, 0,14, 0.00,15.00,SummerDesignDay
7,31.933750000000005
8,0.0
211,23.599782289448656
212,51.278847573571749
547,15.0
548,23.69
360,23.69
399,0.0
1035,2214682.279549534
2,1, 8,21, 0,14,15.00,30.00,SummerDesignDay
7,32.0225
8,0.0
211,25.369070783362316
212,51.43329747819306
547,15.0
548,25.78
360,25.78
399,0.0
1035,1543753.581499688
2,1, 8,21, 0,14,30.00,45.00,SummerDesignDay
7,32.111250000000008
8,0.0
211,25.695463628199673
212,51.491825321034038
547,15.0
548,25.7
360,25.7
399,0.0
1035,2869411.6267283286
2,1, 8,21, 0,14,45.00,60.00,SummerDesignDay
7,32.2
8,0.0
211,25.06110661555917
212,51.51351150183842
547,15.0
548,25.02
360,25.02
399,0.0
1035,4628565.786782446
2,1, 8,21, 0,15, 0.00,15.00,SummerDesignDay
7,32.2
8,0.0
211,25.623997220875617
212,51.39572615957697
547,15.0
548,25.64
360,25.64
399,0.0
1035,3682823.9017536158
2,1, 8,21, 0,15,15.00,30.00,SummerDesignDay
7,32.2
8,0.0
211,24.788205425561267
212,51.19227586952155
547,15.0
548,24.75
360,24.75
399,0.0
1035,5996117.993537703
2,1, 8,21, 0,15,30.00,45.00,SummerDesignDay
7,32.2
8,0.0
211,23.834325828008795
212,50.86842674749201
547,15.0
548,23.74
360,23.739999999999996
399,0.0
1035,8218877.368847085
2,1, 8,21, 0,15,45.00,60.00,SummerDesignDay
7,32.2
8,0.0
211,22.798506082593187
212,50.49383783544257
547,15.0
548,21.73
360,21.73
399,0.0
1035,10701480.795501793
2,1, 8,21, 0,16, 0.00,15.00,SummerDesignDay
7,32.093500000000009
8,0.0
211,22.281807811166489
212,50.00838218963052
547,15.0
548,20.2
360,20.199999999999997
399,0.0
1035,10586828.506655556
2,1, 8,21, 0,16,15.00,30.00,SummerDesignDay
7,31.987000000000003
8,0.0
211,22.551782824983598
212,49.35571240461078
547,15.0
548,22.56
360,22.56
399,0.0
1035,7508190.835709415
2,1, 8,21, 0,16,30.00,45.00,SummerDesignDay
7,31.8805
8,0.0
211,24.409583977453186
212,48.69659499810707
547,15.0
548,24.71
360,24.710000000000038
399,0.0
1035,2860707.943975207
2,1, 8,21, 0,16,45.00,60.00,SummerDesignDay
7,31.774000000000006
8,0.0
211,22.200851978187037
212,47.922019775533879
547,15.0
548,20.42
360,20.42
399,0.0
1035,10570435.16368842
2,1, 8,21, 0,17, 0.00,15.00,SummerDesignDay
7,31.632
8,0.0
211,25.174830509390835
212,47.04923778288899
547,15.0
548,27.34
360,27.34
399,0.0
1035,0.0
2,1, 8,21, 0,17,15.00,30.00,SummerDesignDay
7,31.490000000000003
8,0.0
211,22.853291756151898
212,46.096952796577429
547,15.0
548,22.54
360,22.54
399,0.0
1035,6938911.200818794
2,1, 8,21, 0,17,30.00,45.00,SummerDesignDay
7,31.348000000000004
8,0.0
211,23.479403942999597
212,45.07289407416782
547,15.0
548,23.49
360,23.49
399,0.0
1035,6422190.623390848
2,1, 8,21, 0,17,45.00,60.00,SummerDesignDay
7,31.206000000000004
8,0.0
211,25.87105710650683
212,43.954295767919358
547,15.0
548,27.67
360,27.66999999999996
399,0.0
1035,0.0
2,1, 8,21, 0,18, 0.00,15.00,SummerDesignDay
7,31.0285
8,0.0
211,23.44624619612926
212,42.7855218340238
547,15.0
548,23.11
360,23.11
399,0.0
1035,6218708.307778492
2,1, 8,21, 0,18,15.00,30.00,SummerDesignDay
7,30.851000000000004
8,0.0
211,26.133189477293027
212,41.565189943406938
547,15.0
548,27.82
360,27.82
399,0.0
1035,0.0
2,1, 8,21, 0,18,30.00,45.00,SummerDesignDay
7,30.673500000000005
8,0.0
211,22.833617381697996
212,40.28726134825873
547,15.0
548,21.86
360,21.86000000000003
399,0.0
1035,8811362.165495052
2,1, 8,21, 0,18,45.00,60.00,SummerDesignDay
7,30.496000000000003
8,0.0
211,25.046131598137479
212,38.99649453360915
547,15.0
548,25.37
360,25.370000000000006
399,0.0
1035,2471316.32781915
2,1, 8,21, 0,19, 0.00,15.00,SummerDesignDay
7,30.229750000000004
8,0.0
211,22.802638049656026
212,37.48151094906822
547,15.0
548,21.8
360,21.8
399,0.0
1035,10158714.970981643
2,1, 8,21, 0,19,15.00,30.00,SummerDesignDay
7,29.963500000000005
8,0.0
211,21.657892519047118
212,36.13695317991159
547,15.0
548,20.33
360,20.33
399,0.0
1035,10704000.776940925
2,1, 8,21, 0,19,30.00,45.00,SummerDesignDay
7,29.697250000000005
8,0.0
211,22.9654671101277
212,34.719052502867679
547,15.0
548,23.12
360,23.120000000000006
399,0.0
1035,4580681.026918824
2,1, 8,21, 0,19,45.00,60.00,SummerDesignDay
7,29.431000000000006
8,0.0
211,25.004547249962206
212,33.47298051376522
547,15.0
548,26.81
360,26.809999999999968
399,0.0
1035,0.0
2,1, 8,21, 0,20, 0.00,15.00,SummerDesignDay
7,29.235750000000004
8,0.0
211,22.747143704166203
212,32.24123175410293
547,15.0
548,22.51
360,22.509999999999999
399,0.0
1035,5674088.458978831
2,1, 8,21, 0,20,15.00,30.00,SummerDesignDay
7,29.0405
8,0.0
211,24.989141915522276
212,31.139832491750249
547,15.0
548,26.2
360,26.200000000000004
399,0.0
1035,0.0
2,1, 8,21, 0,20,30.00,45.00,SummerDesignDay
7,28.845250000000005
8,0.0
211,25.48965700179508
212,30.213806599203097
547,15.0
548,25.68
360,25.68
399,0.0
1035,849965.001706482
2,1, 8,21, 0,20,45.00,60.00,SummerDesignDay
7,28.650000000000003
8,0.0
211,24.395761367216975
212,29.284027745660099
547,15.0
548,24.37
360,24.37
399,0.0
1035,4490488.177049897
2,1, 8,21, 0,21, 0.00,15.00,SummerDesignDay
7,28.490250000000004
8,0.0
211,25.835166191176513
212,28.76367689509842
547,15.0
548,26.51
360,26.509999999999999
399,0.0
1035,0.0
2,1, 8,21, 0,21,15.00,30.00,SummerDesignDay
7,28.330500000000006
8,0.0
211,23.240572115796249
212,28.21986513474806
547,15.0
548,22.84
360,22.839999999999998
399,0.0
1035,5886408.594489265
2,1, 8,21, 0,21,30.00,45.00,SummerDesignDay
7,28.17075
8,0.0
211,21.467554159575998
212,27.677214813584528
547,15.0
548,20.56