Program Version,EnergyPlus, Version 9.4.0-998c4b761e, YMD=2022.06.23 14:33
1,5,Environment Title[],Latitude[deg],Longitude[deg],Time Zone[],Elevation[m]
2,8,Day of Simulation[],Month[],Day of Month[],DST Indicator[1=yes 0=no],Hour[],StartMinute[],EndMinute[],DayType
3,5,Cumulative Day of Simulation[],Month[],Day of Month[],DST Indicator[1=yes 0=no],DayType  ! When Daily Report Variables Requested
4,2,Cumulative Days of Simulation[],Month[]  ! When Monthly Report Variables Requested
5,1,Cumulative Days of Simulation[] ! When Run Period Report Variables Requested
6,1,Calendar Year of Simulation[] ! When Annual Report Variables Requested
7,1,Environment,Site Outdoor Air Drybulb Temperature [C] !TimeStep
8,1,LIVING_UNIT1,Zone People Occupant Count [] !TimeStep
211,1,LIVING_UNIT1,Zone Mean Air Temperature [C] !TimeStep
212,1,ATTIC_UNIT1,Zone Mean Air Temperature [C] !TimeStep
360,1,LIVING_UNIT1,Zone Thermostat Cooling Setpoint Temperature [C] !TimeStep
399,1,ATTIC_UNIT1,Zone Thermostat Cooling Setpoint Temperature [C] !TimeStep
547,1,HTGSETP_SCH,Schedule Value [] !TimeStep
548,1,CLGSETP_SCH,Schedule Value [] !TimeStep
1035,1,CENTRAL SYSTEM_UNIT1,Air System Total Cooling Energy [J] !TimeStep
End of Data Dictionary
1,HONOLULU INTL ARPT ANN HTG 99.6% CONDNS DB,  30.29, -97.74,  -6.00, 213.00
2,1, 2,21, 0, 1, 0.00,15.00,WinterDesignDay
7,16.2
8,3.0
211,19.456430765254618
212,11.945347298911017
547,15.0
548,27.08
360,27.08
399,0.0
1035,0.0
2,1, 2,21, 0, 1,15.00,30.00,WinterDesignDay
7,16.2
8,3.0
211,19.411452080322129
212,11.946128117444239
547,15.0
548,27.44
360,27.44
399,0.0
1035,0.0
2,1, 2,21, 0, 1,30.00,45.00,WinterDesignDay
7,16.2
8,3.0
211,19.372557226921218
212,11.946673377193667
547,15.0
548,22.19
360,22.19
399,0.0
1035,0.0
2,1, 2,21, 0, 1,45.00,60.00,WinterDesignDay
7,16.2
8,3.0
211,19.340889401769294
212,11.946987379776687
547,15.0
548,26.8
360,26.8
399,0.0
1035,0.0
2,1, 2,21, 0, 2, 0.00,15.00,WinterDesignDay
7,16.2
8,2.69079
211,19.293279167068996
212,11.947080756341779
547,15.0
548,21.82
360,21.82
399,0.0
1035,0.0
2,1, 2,21, 0, 2,15.00,30.00,WinterDesignDay
7,16.2
8,2.69079
211,19.244721275600324
212,11.94696518616653
547,15.0
548,25.2
360,25.2
399,0.0
1035,0.0
2,1, 2,21, 0, 2,30.00,45.00,WinterDesignDay
7,16.2
8,2.69079
211,19.20556558912257
212,11.946654325797653
547,15.0
548,27.78
360,27.78
399,0.0
1035,0.0
2,1, 2,21, 0, 2,45.00,60.00,WinterDesignDay
7,16.2
8,2.69079
211,19.17529635864356
212,11.94616412224429
547,15.0
548,26.48
360,26.48
399,0.0
1035,0.0
2,1, 2,21, 0, 3, 0.00,15.00,WinterDesignDay
7,16.2
8,3.0
211,19.16447306530487
212,11.945511825564419
547,15.0
548,27.92
360,27.92
399,0.0
1035,0.0
2,1, 2,21, 0, 3,15.00,30.00,WinterDesignDay
7,16.2
8,3.0
211,19.15585828329672
212,11.944727368103724
547,15.0
548,21.76
360,21.76
399,0.0
1035,0.0
2,1, 2,21, 0, 3,30.00,45.00,WinterDesignDay
7,16.2
8,3.0
211,19.141031710094983
212,11.943823402873852
547,15.0
548,25.18
360,25.18
399,0.0
1035,0.0
2,1, 2,21, 0, 3,45.00,60.00,WinterDesignDay
7,16.2
8,3.0
211,19.12176132174328
212,11.94280908719546
547,15.0
548,26.97
360,26.97
399,0.0
1035,0.0
2,1, 2,21, 0, 4, 0.00,15.00,WinterDesignDay
7,16.2
8,2.69079
211,19.085493044472128
212,11.941702703422589
547,15.0
548,22.06
360,22.06
399,0.0
1035,0.0
2,1, 2,21, 0, 4,15.00,30.00,WinterDesignDay
7,16.2
8,2.69079
211,19.04949683645074
212,11.940526822643156
547,15.0
548,20.81
360,20.81
399,0.0
1035,0.0
2,1, 2,21, 0, 4,30.00,45.00,WinterDesignDay
7,16.2
8,2.69079
211,19.022566406179018
212,11.939302119547646
547,15.0
548,25.2
360,25.2
399,0.0
1035,0.0
2,1, 2,21, 0, 4,45.00,60.00,WinterDesignDay
7,16.2
8,2.69079
211,19.00293288660322
212,11.938045290750845
547,15.0
548,26.08
360,26.08
399,0.0
1035,0.0
2,1, 2,21, 0, 5, 0.00,15.00,WinterDesignDay
7,16.2
8,3.0
211,19.008789337222045
212,11.93680840123929
547,15.0
548,20.5
360,20.5
399,0.0
1035,0.0
2,1, 2,21, 0, 5,15.00,30.00,WinterDesignDay
7,16.2
8,3.0
211,19.018249324691998
212,11.935580333354608
547,15.0
548,27.9
360,27.9
399,0.0
1035,0.0
2,1, 2,21, 0, 5,30.00,45.00,WinterDesignDay
7,16.2
8,3.0
211,19.01875503646724
212,11.934336940650937
547,15.0
548,24.1
360,24.1
399,0.0
1035,0.0
2,1, 2,21, 0, 5,45.00,60.00,WinterDesignDay
7,16.2
8,3.0
211,19.011763798221727
212,11.933085126883377
547,15.0
548,20.08
360,20.08
399,0.0
1035,0.0
2,1, 2,21, 0, 6, 0.00,15.00,WinterDesignDay
7,16.2
8,2.69079
211,19.005995426864105
212,11.931806535627642
547,15.0
548,20.79
360,20.79
399,0.0
1035,0.0
2,1, 2,21, 0, 6,15.00,30.00,WinterDesignDay
7,16.2
8,2.69079
211,19.006509687155263
212,11.930657022110303
547,15.0
548,23.9
360,23.9
399,0.0
1035,0.0
2,1, 2,21, 0, 6,30.00,45.00,WinterDesignDay
7,16.2
8,2.69079
211,19.010395966818025
212,11.929623931885292
547,15.0
548,25.44
360,25.44
399,0.0
1035,0.0
2,1, 2,21, 0, 6,45.00,60.00,WinterDesignDay
7,16.2
8,2.69079
211,19.014686231771085
212,11.928621763606737
547,15.0
548,22.06
360,22.06
399,0.0
1035,0.0
2,1, 2,21, 0, 7, 0.00,15.00,WinterDesignDay
7,16.2
8,3.0
211,19.046995822342688
212,11.927533507266733
547,15.0
548,25.49
360,25.49
399,0.0
1035,0.0
2,1, 2,21, 0, 7,15.00,30.00,WinterDesignDay
7,16.2
8,3.0
211,19.084114476730936
212,11.926465924738324
547,15.0
548,24.34
360,24.34
399,0.0
1035,0.0
2,1, 2,21, 0, 7,30.00,45.00,WinterDesignDay
7,16.2
8,3.0
211,19.110139969201236
212,11.925538520793655
547,15.0
548,24.47
360,24.47
399,0.0
1035,0.0
2,1, 2,21, 0, 7,45.00,60.00,WinterDesignDay
7,16.2
8,3.0
211,19.12554087040222
212,11.924763481935895
547,15.0
548,24.06
360,24.06
399,0.0
1035,0.0
2,1, 2,21, 0, 8, 0.00,15.00,WinterDesignDay
7,16.2
8,2.6493
211,19.121466552800976
212,11.924116608680603
547,15.0
548,25.19
360,25.19
399,0.0
1035,0.0
2,1, 2,21, 0, 8,15.00,30.00,WinterDesignDay
7,16.2
8,2.6493
211,19.11799525968758
212,11.923590060001234
547,15.0
548,21.3
360,21.3
399,0.0
1035,0.0
2,1, 2,21, 0, 8,30.00,45.00,WinterDesignDay
7,16.2
8,2.6493
211,19.12406300356064
212,11.923197615792685
547,15.0
548,24.09
360,24.09
399,0.0
1035,0.0
2,1, 2,21, 0, 8,45.00,60.00,WinterDesignDay
7,16.2
8,2.6493
211,19.13527820443758
212,11.922932513642636
547,15.0
548,25.66
360,25.66
399,0.0
1035,0.0
2,1, 2,21, 0, 9, 0.00,15.00,WinterDesignDay
7,16.2
8,1.22583
211,19.051617966710375
212,11.922778097819315
547,15.0
548,24.89
360,24.89
399,0.0
1035,0.0
2,1, 2,21, 0, 9,15.00,30.00,WinterDesignDay
7,16.2
8,1.22583
211,18.952360913217686
212,11.922728212407805
547,15.0
548,20.32
360,20.32
399,0.0
1035,0.0
2,1, 2,21, 0, 9,30.00,45.00,WinterDesignDay
7,16.2
8,1.22583
211,18.8924081232533
212,11.922771166318596
547,15.0
548,25.08
360,25.08
399,0.0
1035,0.0
2,1, 2,21, 0, 9,45.00,60.00,WinterDesignDay
7,16.2
8,1.22583
211,18.868286940284656
212,11.922880755913038
547,15.0
548,25.44
360,25.44
399,0.0
1035,0.0
2,1, 2,21, 0,10, 0.00,15.00,WinterDesignDay
7,16.2
8,0.72567
211,18.820611977145434
212,11.923022103710114
547,15.0
548,21.55
360,21.55
399,0.0
1035,0.0
2,1, 2,21, 0,10,15.00,30.00,WinterDesignDay
7,16.2
8,0.72567
211,18.76698424848501
212,11.923159505543206
547,15.0
548,26.35
360,26.35
399,0.0
1035,0.0
2,1, 2,21, 0,10,30.00,45.00,WinterDesignDay
7,16.2
8,0.72567
211,18.724946734511805
212,11.923260629037144
547,15.0
548,25.52
360,25.52
399,0.0
1035,0.0
2,1, 2,21, 0,10,45.00,60.00,WinterDesignDay
7,16.2
8,0.72567
211,18.696535077690059
212,11.923298291778263
547,15.0
548,23.12
360,23.12
399,0.0
1035,0.0
2,1, 2,21, 0,11, 0.00,15.00,WinterDesignDay
7,16.2
8,0.72567
211,18.676788519530395
212,11.92325185978909
547,15.0
548,22.95
360,22.95
399,0.0
1035,0.0
2,1, 2,21, 0,11,15.00,30.00,WinterDesignDay
7,16.2
8,0.72567
211,18.65930904715941
212,11.923108138819961
547,15.0
548,22.38
360,22.38
399,0.0
1035,0.0
2,1, 2,21, 0,11,30.00,45.00,WinterDesignDay
7,16.2
8,0.72567
211,18.641692487749546
212,11.922861316279393
547,15.0
548,23.82
360,23.82
399,0.0
1035,0.0
2,1, 2,21, 0,11,45.00,60.00,WinterDesignDay
7,16.2
8,0.72567
211,18.62420760660314
212,11.922512137197903
547,15.0
548,26.34
360,26.34
399,0.0
1035,0.0
2,1, 2,21, 0,12, 0.00,15.00,WinterDesignDay
7,16.2
8,0.72567
211,18.608059794214549
212,11.922066599936393
547,15.0
548,20.33
360,20.33
399,0.0
1035,0.0
2,1, 2,21, 0,12,15.00,30.00,WinterDesignDay
7,16.2
8,0.72567
211,18.59428971120934
212,11.921534384447093
547,15.0
548,27.57
360,27.57
399,0.0
1035,0.0
2,1, 2,21, 0,12,30.00,45.00,WinterDesignDay
7,16.2
8,0.72567
211,18.581508734099829
212,11.920927291027525
547,15.0
548,21.11
360,21.11
399,0.0
1035,0.0
2,1, 2,21, 0,12,45.00,60.00,WinterDesignDay
7,16.2
8,0.72567
211,18.568930108716367
212,11.92025793924836
547,15.0
548,24.89
360,24.89
399,0.0
1035,0.0
2,1, 2,21, 0,13, 0.00,15.00,WinterDesignDay
7,16.2
8,0.72567
211,18.555874563144149
212,11.919538843141839
547,15.0
548,24.45
360,24.45
399,0.0
1035,0.0
2,1, 2,21, 0,13,15.00,30.00,WinterDesignDay
7,16.2
8,0.72567
211,18.543239330297138
212,11.918805718087855
547,15.0
548,27.81
360,27.81
399,0.0
1035,0.0
2,1, 2,21, 0,13,30.00,45.00,WinterDesignDay
7,16.2
8,0.72567
211,18.531590120500849
212,11.91805698426472
547,15.0
548,27.28
360,27.28
399,0.0
1035,0.0
2,1, 2,21, 0,13,45.00,60.00,WinterDesignDay
7,16.2
8,0.72567
211,18.522164401278695
212,11.917282120896829
547,15.0
548,22.26
360,22.26
399,0.0
1035,0.0
2,1, 2,21, 0,14, 0.00,15.00,WinterDesignDay
7,16.2
8,0.72567
211,18.514531751408208
212,11.916487195489136
547,15.0
548,23.69
360,23.69
399,0.0
1035,0.0
2,1, 2,21, 0,14,15.00,30.00,WinterDesignDay
7,16.2
8,0.72567
211,18.506843781847964
212,11.915684844974719
547,15.0
548,25.78
360,25.78
399,0.0
1035,0.0
2,1, 2,21, 0,14,30.00,45.00,WinterDesignDay
7,16.2
8,0.72567
211,18.498609135219494
212,11.914883980582538
547,15.0
548,25.7
360,25.7
399,0.0
1035,0.0
2,1, 2,21, 0,14,45.00,60.00,WinterDesignDay
7,16.2
8,0.72567
211,18.490222085070667
212,11.914089556466008
547,15.0
548,25.02
360,25.02
399,0.0
1035,0.0
2,1, 2,21, 0,15, 0.00,15.00,WinterDesignDay
7,16.2
8,0.72567
211,18.484183630219943
212,11.913305412175799
547,15.0
548,25.64
360,25.64
399,0.0
1035,0.0
2,1, 2,21, 0,15,15.00,30.00,WinterDesignDay
7,16.2
8,0.72567
211,18.47907386984714
212,11.912535337625764
547,15.0
548,24.75
360,24.75
399,0.0
1035,0.0
2,1, 2,21, 0,15,30.00,45.00,WinterDesignDay
7,16.2
8,0.72567
211,18.474431548884956
212,11.911782861183286
547,15.0
548,23.74
360,23.74
399,0.0
1035,0.0
2,1, 2,21, 0,15,45.00,60.00,WinterDesignDay
7,16.2
8,0.72567
211,18.47017196520132
212,11.911051046314645
547,15.0
548,21.73
360,21.73
399,0.0
1035,0.0
2,1, 2,21, 0,16, 0.00,15.00,WinterDesignDay
7,16.2
8,0.72567
211,18.47464940039957
212,11.910342442362083
547,15.0
548,20.2
360,20.2
399,0.0
1035,0.0
2,1, 2,21, 0,16,15.00,30.00,WinterDesignDay
7,16.2
8,0.72567
211,18.481964349545359
212,11.909704842027482
547,15.0
548,22.56
360,22.56
399,0.0
1035,0.0
2,1, 2,21, 0,16,30.00,45.00,WinterDesignDay
7,16.2
8,0.72567
211,18.486945937320358
212,11.909117774719445
547,15.0
548,24.71
360,24.71
399,0.0
1035,0.0
2,1, 2,21, 0,16,45.00,60.00,WinterDesignDay
7,16.2
8,0.72567
211,18.48899644414584
212,11.908546196889964
547,15.0
548,20.42
360,20.42
399,0.0
1035,0.0
2,1, 2,21, 0,17, 0.00,15.00,WinterDesignDay
7,16.2
8,0.8849400000000001
211,18.526028735056426
212,11.907920344649292
547,15.0
548,27.34
360,27.34
399,0.0
1035,0.0
2,1, 2,21, 0,17,15.00,30.00,WinterDesignDay
7,16.2
8,0.8849400000000001
211,18.573619554593998
212,11.907312771422358
547,15.0
548,22.54
360,22.54
399,0.0
1035,0.0
2,1, 2,21, 0,17,30.00,45.00,WinterDesignDay
7,16.2
8,0.8849400000000001
211,18.611098284312154
212,11.906794794398019
547,15.0
548,23.49
360,23.49
399,0.0
1035,0.0
2,1, 2,21, 0,17,45.00,60.00,WinterDesignDay
7,16.2
8,0.8849400000000001
211,18.63702224158665
212,11.906376719400962
547,15.0
548,27.67
360,27.67
399,0.0
1035,0.0
2,1, 2,21, 0,18, 0.00,15.00,WinterDesignDay
7,16.2
8,1.6593
211,18.725718370287287
212,11.906053342825638
547,15.0
548,23.11
360,23.11
399,0.0
1035,0.0
2,1, 2,21, 0,18,15.00,30.00,WinterDesignDay
7,16.2
8,1.6593
211,18.825321923822345
212,11.905839052463927
547,15.0
548,27.82
360,27.82
399,0.0
1035,0.0
2,1, 2,21, 0,18,30.00,45.00,WinterDesignDay
7,16.2
8,1.6593
211,18.898939610700308
212,11.905756427625292
547,15.0
548,21.86
360,21.86
399,0.0
1035,0.0
2,1, 2,21, 0,18,45.00,60.00,WinterDesignDay
7,16.2
8,1.6593
211,18.94743540832868
212,11.905826661701442
547,15.0
548,25.37
360,25.37
399,0.0
1035,0.0
2,1, 2,21, 0,19, 0.00,15.00,WinterDesignDay
7,16.2
8,2.69079
211,19.056649872024594
212,11.906068729101135
547,15.0
548,21.8
360,21.8
399,0.0
1035,0.0
2,1, 2,21, 0,19,15.00,30.00,WinterDesignDay
7,16.2
8,2.69079
211,19.17220770771605
212,11.906497509342254
547,15.0
548,20.33
360,20.33
399,0.0
1035,0.0
2,1, 2,21, 0,19,30.00,45.00,WinterDesignDay
7,16.2
8,2.69079
211,19.258261427498885
212,11.90712305390992
547,15.0
548,23.12
360,23.12
399,0.0
1035,0.0
2,1, 2,21, 0,19,45.00,60.00,WinterDesignDay
7,16.2
8,2.69079
211,19.316848819953504
212,11.907952038289292
547,15.0
548,26.81
360,26.81
399,0.0
1035,0.0
2,1, 2,21, 0,20, 0.00,15.00,WinterDesignDay
7,16.2
8,2.69079
211,19.36906255722305
212,11.908988188093176
547,15.0
548,22.51
360,22.51
399,0.0
1035,0.0
2,1, 2,21, 0,20,15.00,30.00,WinterDesignDay
7,16.2
8,2.69079
211,19.419211492810896
212,11.910230847394221
547,15.0
548,26.2
360,26.2
399,0.0
1035,0.0
2,1, 2,21, 0,20,30.00,45.00,WinterDesignDay
7,16.2
8,2.69079
211,19.465894703661016
212,11.911673290991088
547,15.0
548,25.68
360,25.68
399,0.0
1035,0.0
2,1, 2,21, 0,20,45.00,60.00,WinterDesignDay
7,16.2
8,2.69079
211,19.509395781550578
212,11.913302027032298
547,15.0
548,24.37
360,24.37
399,0.0
1035,0.0
2,1, 2,21, 0,21, 0.00,15.00,WinterDesignDay
7,16.2
8,2.69079
211,19.55069166107609
212,11.91509742443048
547,15.0
548,26.51
360,26.51
399,0.0
1035,0.0
2,1, 2,21, 0,21,15.00,30.00,WinterDesignDay
7,16.2
8,2.69079
211,19.588103701215219
212,11.917035411821822
547,15.0
548,22.84
360,22.84
399,0.0
1035,0.0
2,1, 2,21, 0,21,30.00,45.00,WinterDesignDay
7,16.2
8,2.69079
211,19.621706256636867
212,11.919089461602584
547,15.0
548,20.56
360,20.56
399,0.0
1035,0.0
2,1, 2,21, 0,21,45.00,60.00,WinterDesignDay
7,16.2
8,2.69079
211,19.652540954732154
212,11.921232431776927
547,15.0
548,21.35
360,21.35
399,0.0
1035,0.0
2,1, 2,21, 0,22, 0.00,15.00,WinterDesignDay
7,16.2
8,3.0
211,19.678637209027639
212,11.923340456673646
547,15.0
548,26.14
360,26.14
399,0.0
1035,0.0
2,1, 2,21, 0,22,15.00,30.00,WinterDesignDay
7,16.2
8,3.0
211,19.69933010685346
212,11.925511217307385
547,15.0
548,26.48
360,26.48
399,0.0
1035,0.0
2,1, 2,21, 0,22,30.00,45.00,WinterDesignDay
7,16.2
8,3.0
211,19.716116783386715
212,11.927761024107186
547,15.0
548,25.95
360,25.95
399,0.0
1035,0.0
2,1, 2,21, 0,22,45.00,60.00,WinterDesignDay
7,16.2
8,3.0
211,19.730922673133937
212,11.930011816180697
547,15.0
548,21.38
360,21.38
399,0.0
1035,0.0
2,1, 2,21, 0,23, 0.00,15.00,WinterDesignDay
7,16.2
8,2.69079
211,19.6966605035387
212,11.932240206177726
547,15.0
548,25.36
360,25.36
399,0.0
1035,0.0
2,1, 2,21, 0,23,15.00,30.00,WinterDesignDay
7,16.2
8,2.69079
211,19.648940337227019
212,11.934317617966777
547,15.0
548,27.93
360,27.93
399,0.0
1035,0.0
2,1, 2,21, 0,23,30.00,45.00,WinterDesignDay
7,16.2
8,2.69079
211,19.61513144608366
212,11.936319485924118
547,15.0
548,27.62
360,27.62
399,0.0
1035,0.0
2,1, 2,21, 0,23,45.00,60.00,WinterDesignDay
7,16.2
8,2.69079
211,19.597400799771834
212,11.938258651925546
547,15.0
548,23.54
360,23.54
399,0.0
1035,0.0
2,1, 2,21, 0,24, 0.00,15.00,WinterDesignDay
7,16.2
8,3.0
211,19.5771472679212
212,11.94008893067941
547,15.0
548,21.71
360,21.71
399,0.0
1035,0.0
2,1, 2,21, 0,24,15.00,30.00,WinterDesignDay
7,16.2
8,3.0
211,19.550836703230507
212,11.941723684725334
547,15.0
548,25.3
360,25.3
399,0.0
1035,0.0
2,1, 2,21, 0,24,30.00,45.00,WinterDesignDay
7,16.2
8,3.0
211,19.523244885565427
212,11.943140064064846
547,15.0
548,23.79
360,23.79
399,0.0
1035,0.0
2,1, 2,21, 0,24,45.00,60.00,WinterDesignDay
7,16.2
8,3.0
211,19.498078081483049
212,11.944346036193068
547,15.0
548,27.04
360,27.04
399,0.0
1035,0.0
1,HONOLULU INTL ARPT ANN CLG .4% CONDNS DB=>MWB,  30.29, -97.74,  -6.00, 213.00
2,1, 8,21, 0, 1, 0.00,15.00,SummerDesignDay
7,26.271500000000004
8,3.0
211,24.868568606389155
212,24.64815829006161
547,15.0
548,27.08
360,27.08
399,0.0
1035,0.0
2,1, 8,21, 0, 1,15.00,30.00,SummerDesignDay
7,26.165000000000004
8,3.0
211,25.102696129748155
212,24.52548018128968
547,15.0
548,27.44
360,27.44
399,0.0
1035,0.0
2,1, 8,21, 0, 1,30.00,45.00,SummerDesignDay
7,26.058500000000003
8,3.0
211,22.559828854223704
212,24.382609277885284
547,15.0
548,22.19
360,22.19
399,0.0
1035,5028980.1404276969
2,1, 8,21, 0, 1,45.00,60.00,SummerDesignDay
7,25.952000000000007
8,3.0
211,23.887845351209145
212,24.27407541250949
547,15.0
548,26.8
360,26.8
399,0.0
1035,0.0
2,1, 8,21, 0, 2, 0.00,15.00,SummerDesignDay
7,25.881000000000005
8,2.69079
211,22.024142473228438
212,24.146847527308556
547,15.0
548,21.82
360,21.82
399,0.0
1035,5258374.97072352
2,1, 8,21, 0, 2,15.00,30.00,SummerDesignDay
7,25.810000000000004
8,2.69079
211,23.328225002472125
212,24.05278459266937
547,15.0
548,25.2
360,25.2
399,0.0
1035,0.0
2,1, 8,21, 0, 2,30.00,45.00,SummerDesignDay
7,25.739000000000006
8,2.69079
211,23.909652174239544
212,23.94253230983918
547,15.0
548,27.78
360,27.780000000000006
399,0.0
1035,0.0
2,1, 8,21, 0, 2,45.00,60.00,SummerDesignDay
7,25.668000000000004
8,2.69079
211,24.160794079075936
212,23.860449656671304
547,15.0
548,26.48
360,26.48
399,0.0
1035,0.0
2,1, 8,21, 0, 3, 0.00,15.00,SummerDesignDay
7,25.614750000000006
8,3.0
211,24.807684872293217
212,23.73526616283334
547,15.0
548,27.92
360,27.92
399,0.0
1035,0.0
2,1, 8,21, 0, 3,15.00,30.00,SummerDesignDay
7,25.561500000000004
8,3.0
211,22.192149208950533
212,23.67373725844939
547,15.0
548,21.76
360,21.759999999999999
399,0.0
1035,6121349.493162889
2,1, 8,21, 0, 3,30.00,45.00,SummerDesignDay
7,25.508250000000005
8,3.0
211,22.382333373104257
212,23.601285220995896
547,15.0
548,25.18
360,25.18
399,0.0
1035,0.0
2,1, 8,21, 0, 3,45.00,60.00,SummerDesignDay
7,25.455000000000007
8,3.0
211,23.377114748659378
212,23.5344809953481
547,15.0
548,26.97
360,26.97
399,0.0
1035,0.0
2,1, 8,21, 0, 4, 0.00,15.00,SummerDesignDay
7,25.401750000000005
8,2.69079
211,22.05980322591432
212,23.474734589039323
547,15.0
548,22.06
360,22.06
399,0.0
1035,3543693.159594536
2,1, 8,21, 0, 4,15.00,30.00,SummerDesignDay
7,25.3485
8,2.69079
211,20.929748916728444
212,23.394653241179499
547,15.0
548,20.81
360,20.81
399,0.0
1035,7022792.15642255
2,1, 8,21, 0, 4,30.00,45.00,SummerDesignDay
7,25.295250000000004
8,2.69079
211,22.371218248380666
212,23.331857257340844
547,15.0
548,25.2
360,25.2
399,0.0
1035,0.0
2,1, 8,21, 0, 4,45.00,60.00,SummerDesignDay
7,25.242000000000006
8,2.69079
211,22.951959630759747
212,23.282226927439849
547,15.0
548,26.08
360,26.080000000000003
399,0.0
1035,0.0
2,1, 8,21, 0, 5, 0.00,15.00,SummerDesignDay
7,25.206500000000007
8,3.0
211,20.829442948737638
212,23.229403129678869
547,15.0
548,20.5
360,20.5
399,0.0
1035,6184164.344844548
2,1, 8,21, 0, 5,15.00,30.00,SummerDesignDay
7,25.171000000000004
8,3.0
211,22.422648431225818
212,23.18053467480839
547,15.0
548,27.9
360,27.9
399,0.0
1035,0.0
2,1, 8,21, 0, 5,30.00,45.00,SummerDesignDay
7,25.135500000000005
8,3.0
211,22.961044884961209
212,23.129481879891576
547,15.0
548,24.1
360,24.099999999999999
399,0.0
1035,0.0
2,1, 8,21, 0, 5,45.00,60.00,SummerDesignDay
7,25.1
8,3.0
211,20.52428868103651
212,23.08231726153933
547,15.0
548,20.08
360,20.080000000000028
399,0.0
1035,6380114.639161562
2,1, 8,21, 0, 6, 0.00,15.00,SummerDesignDay
7,25.135500000000005
8,2.69079
211,20.763487743584777
212,23.04080939871883
547,15.0
548,20.79
360,20.79
399,0.0
1035,1251179.7257696805
2,1, 8,21, 0, 6,15.00,30.00,SummerDesignDay
7,25.171000000000004
8,2.69079
211,22.075905288003349
212,23.023281350331069
547,15.0
548,23.9
360,23.9
399,0.0
1035,0.0
2,1, 8,21, 0, 6,30.00,45.00,SummerDesignDay
7,25.206500000000007
8,2.69079
211,22.61510641897752
212,23.015737093478447
547,15.0
548,25.44
360,25.440000000000006
399,0.0
1035,0.0
2,1, 8,21, 0, 6,45.00,60.00,SummerDesignDay
7,25.242000000000006
8,2.69079
211,22.07961228040481
212,23.015937948486138
547,15.0
548,22.06
360,22.06
399,0.0
1035,2077721.2131576976
2,1, 8,21, 0, 7, 0.00,15.00,SummerDesignDay
7,25.36625
8,3.0
211,23.01900722562192
212,23.082574347165445
547,15.0
548,25.49
360,25.49
399,0.0
1035,0.0
2,1, 8,21, 0, 7,15.00,30.00,SummerDesignDay
7,25.490500000000006
8,3.0
211,23.517848099234486
212,23.289493085671994
547,15.0
548,24.34
360,24.34
399,0.0
1035,0.0
2,1, 8,21, 0, 7,30.00,45.00,SummerDesignDay
7,25.614750000000006
8,3.0
211,24.041100964333205
212,23.649428941751596
547,15.0
548,24.47
360,24.47
399,0.0
1035,0.0
2,1, 8,21, 0, 7,45.00,60.00,SummerDesignDay
7,25.739000000000006
8,3.0
211,24.059846390564077
212,24.12030092744064
547,15.0
548,24.06
360,24.06
399,0.0
1035,1216379.7050118857
2,1, 8,21, 0, 8, 0.00,15.00,SummerDesignDay
7,26.040750000000004
8,2.6493
211,24.678984728152558
212,24.8196701847805
547,15.0
548,25.19
360,25.189999999999999
399,0.0
1035,0.0
2,1, 8,21, 0, 8,15.00,30.00,SummerDesignDay
7,26.342500000000006
8,2.6493
211,21.92636634455426
212,25.706496356533966
547,15.0
548,21.3
360,21.3
399,0.0
1035,7634941.635893038
2,1, 8,21, 0, 8,30.00,45.00,SummerDesignDay
7,26.644250000000004
8,2.6493
211,23.6181947280512
212,26.903492593313176
547,15.0
548,24.09
360,24.090000000000005
399,0.0
1035,788785.5351396976
2,1, 8,21, 0, 8,45.00,60.00,SummerDesignDay
7,26.946000000000006
8,2.6493
211,24.47233126152481
212,28.187246135289393
547,15.0
548,25.66
360,25.66000000000004
399,0.0
1035,0.0
2,1, 8,21, 0, 9, 0.00,15.00,SummerDesignDay
7,27.283250000000004
8,1.22583
211,24.82851783142363
212,29.635098576987038
547,15.0
548,24.89
360,24.89
399,0.0
1035,1057208.4151672812
2,1, 8,21, 0, 9,15.00,30.00,SummerDesignDay
7,27.620500000000005
8,1.22583
211,21.679997325282284
212,31.13026948017513
547,15.0
548,20.32
360,20.320000000000016
399,0.0
1035,10479661.76338238
2,1, 8,21, 0, 9,30.00,45.00,SummerDesignDay
7,27.957750000000006
8,1.22583
211,23.8138220988057
212,32.66655355187364
547,15.0
548,25.08
360,25.080000000000007
399,0.0
1035,0.0
2,1, 8,21, 0, 9,45.00,60.00,SummerDesignDay
7,28.295
8,1.22583
211,25.30877732676085
212,34.47484970623378
547,15.0
548,25.44
360,25.440000000000006
399,0.0
1035,655256.654498009
2,1, 8,21, 0,10, 0.00,15.00,SummerDesignDay
7,28.596750000000005
8,0.72567
211,22.327747565032384
212,35.845637264473058
547,15.0
548,21.55
360,21.549999999999998
399,0.0
1035,8392351.153083358
2,1, 8,21, 0,10,15.00,30.00,SummerDesignDay
7,28.898500000000003
8,0.72567
211,24.42608567161637
212,37.32154031462059
547,15.0
548,26.35
360,26.349999999999999
399,0.0
1035,0.0
2,1, 8,21, 0,10,30.00,45.00,SummerDesignDay
7,29.200250000000005
8,0.72567
211,25.519151994433689
212,38.979324604843927
547,15.0
548,25.52
360,25.520000000000008
399,0.0
1035,1339951.8769989317
2,1, 8,21, 0,10,45.00,60.00,SummerDesignDay
7,29.502000000000004
8,0.72567
211,23.42974884335925
212,40.2629239685025
547,15.0
548,23.12
360,23.12000000000004
399,0.0
1035,6728415.217820257
2,1, 8,21, 0,11, 0.00,15.00,SummerDesignDay
7,29.768250000000003
8,0.72567
211,22.978893259806769
212,41.595787063089748
547,15.0
548,22.95
360,22.95
399,0.0
1035,7050411.15601816
2,1, 8,21, 0,11,15.00,30.00,SummerDesignDay
7,30.0345
8,0.72567
211,22.404226495375146
212,43.04320460044631
547,15.0
548,22.38
360,22.38
399,0.0
1035,7486621.49181135
2,1, 8,21, 0,11,30.00,45.00,SummerDesignDay
7,30.300750000000006
8,0.72567
211,23.67083933446971
212,44.26603170926856
547,15.0
548,23.82
360,23.82
399,0.0
1035,3152903.3901886448
2,1, 8,21, 0,11,45.00,60.00,SummerDesignDay
7,30.567000000000005
8,0.72567
211,25.31003754054637
212,45.314421836940329
547,15.0
548,26.34
360,26.340000000000047
399,0.0
1035,0.0
2,1, 8,21, 0,12, 0.00,15.00,SummerDesignDay
7,30.744500000000003
8,0.72567
211,21.699077830463396
212,46.35266920918589
547,15.0
548,20.33
360,20.329999999999996
399,0.0
1035,9215765.779807708
2,1, 8,21, 0,12,15.00,30.00,SummerDesignDay
7,30.922000000000005
8,0.72567
211,24.43788186482808
212,47.29821774865926
547,15.0
548,27.57
360,27.57
399,0.0
1035,0.0
2,1, 8,21, 0,12,30.00,45.00,SummerDesignDay
7,31.099500000000004
8,0.72567
211,22.278962394256756
212,48.252703775814627
547,15.0
548,21.11
360,21.11000000000001
399,0.0
1035,8912937.142916097
2,1, 8,21, 0,12,45.00,60.00,SummerDesignDay
7,31.277000000000006
8,0.72567
211,23.97526551631699
212,49.01252739641146
547,15.0
548,24.89
360,24.890000000000005
399,0.0
1035,1010249.4519827834
2,1, 8,21, 0,13, 0.00,15.00,SummerDesignDay
7,31.419000000000005
8,0.72567
211,24.406588442286734
212,49.596986908499037
547,15.0
548,24.45
360,24.449999999999997
399,0.0
1035,2254455.9054966738
2,1, 8,21, 0,13,15.00,30.00,SummerDesignDay
7,31.561000000000005
8,0.72567
211,25.930626650240968
212,50.161905925877558
547,15.0
548,27.81
360,27.810000000000004
399,0.0
1035,0.0
2,1, 8,21, 0,13,30.00,45.00,SummerDesignDay
7,31.703000000000004
8,0.72567
211,27.23305137487869
212,50.678335120736047
547,15.0
548,27.28
360,27.28
399,0.0
1035,739502.624457443
2,1, 8,21, 0,13,45.00,60.00,SummerDesignDay
7,31.845000000000004
8,0.72567
211,23.466809604077335
212,51.00635123396363
547,15.0
548,22.26
360,22.260000000000049
399,0.0
1035,8804902.415439163
2,1, 8,21, 0,14, 0.00,15.00,SummerDesignDay
7,31.933750000000005
8,0.72567
211,23.595941984596619
212,51.28006725168641
547,15.0
548,23.69
360,23.69
399,0.0
1035,2319524.010641375
2,1, 8,21, 0,14,15.00,30.00,SummerDesignDay
7,32.0225
8,0.72567
211,25.372992844787246
212,51.43441638783914
547,15.0
548,25.78
360,25.78
399,0.0
1035,1605945.5325163953
2,1, 8,21, 0,14,30.00,45.00,SummerDesignDay
7,32.111250000000008
8,0.72567
211,25.695237875958016
212,51.49286253227967
547,15.0
548,25.7
360,25.7
399,0.0
1035,2937139.1088124325
2,1, 8,21, 0,14,45.00,60.00,SummerDesignDay
7,32.2
8,0.72567
211,25.061549999644975
212,51.51444224117529
547,15.0
548,25.02
360,25.02
399,0.0
1035,4702445.758171316
2,1, 8,21, 0,15, 0.00,15.00,SummerDesignDay
7,32.2
8,0.72567
211,25.623592438056428
212,51.39658203742164
547,15.0
548,25.64
360,25.64
399,0.0
1035,3752686.191811977
2,1, 8,21, 0,15,15.00,30.00,SummerDesignDay
7,32.2
8,0.72567
211,24.788490956189937
212,51.19306464468426
547,15.0
548,24.75
360,24.75
399,0.0
1035,6073199.202376208
2,1, 8,21, 0,15,30.00,45.00,SummerDesignDay
7,32.2
8,0.72567
211,23.834794452452138
212,50.869141830353317
547,15.0
548,23.74
360,23.739999999999996
399,0.0
1035,8306960.729356298
2,1, 8,21, 0,15,45.00,60.00,SummerDesignDay
7,32.2
8,0.72567
211,22.80118593745367
212,50.49449386011429
547,15.0
548,21.73
360,21.73
399,0.0
1035,10790392.339541972
2,1, 8,21, 0,16, 0.00,15.00,SummerDesignDay
7,32.093500000000009
8,0.72567
211,22.286172274866354
212,50.008980269325778
547,15.0
548,20.2
360,20.199999999999997
399,0.0
1035,10673742.467275337
2,1, 8,21, 0,16,15.00,30.00,SummerDesignDay
7,31.987000000000003
8,0.72567
211,22.551771699201404
212,49.35624948364092
547,15.0
548,22.56
360,22.56
399,0.0
1035,7597206.470076202
2,1, 8,21, 0,16,30.00,45.00,SummerDesignDay
7,31.8805
8,0.72567
211,24.412512468792405
212,48.697084443092837
547,15.0
548,24.71
360,24.710000000000038
399,0.0
1035,2925182.3950935087
2,1, 8,21, 0,16,45.00,60.00,SummerDesignDay
7,31.774000000000006
8,0.72567
211,22.20065512796343
212,47.92246386093339
547,15.0
548,20.42
360,20.42
399,0.0
1035,10655884.724157885
2,1, 8,21, 0,17, 0.00,15.00,SummerDesignDay
7,31.632
8,0.8849400000000001
211,25.205674569788486
212,47.04964081122452
547,15.0
548,27.34
360,27.34
399,0.0
1035,0.0
2,1, 8,21, 0,17,15.00,30.00,SummerDesignDay
7,31.490000000000003
8,0.8849400000000001
211,22.859468370205513
212,46.097319220801768
547,15.0
548,22.54
360,22.54
399,0.0
1035,7003966.549423017
2,1, 8,21, 0,17,30.00,45.00,SummerDesignDay
7,31.348000000000004
8,0.8849400000000001
211,23.479204296184088
212,45.07322814930055
547,15.0
548,23.49
360,23.49
399,0.0
1035,6532770.26771547
2,1, 8,21, 0,17,45.00,60.00,SummerDesignDay
7,31.206000000000004
8,0.8849400000000001
211,25.901845864619064
212,43.954601588961299
547,15.0
548,27.67
360,27.66999999999996
399,0.0
1035,0.0
2,1, 8,21, 0,18, 0.00,15.00,SummerDesignDay
7,31.0285
8,1.6593
211,23.454681275167454
212,42.78580587895204
547,15.0
548,23.11
360,23.11
399,0.0
1035,6322359.719963779
2,1, 8,21, 0,18,15.00,30.00,SummerDesignDay
7,30.851000000000004
8,1.6593
211,26.19252016509356
212,41.56545767587972
547,15.0
548,27.82
360,27.82
399,0.0
1035,0.0
2,1, 8,21, 0,18,30.00,45.00,SummerDesignDay
7,30.673500000000005
8,1.6593
211,22.858696050651056
212,40.28751785653344
547,15.0
548,21.86
360,21.86000000000003
399,0.0
1035,8935281.446481845
2,1, 8,21, 0,18,45.00,60.00,SummerDesignDay
7,30.496000000000003
8,1.6593
211,25.066997203783669
212,38.99674532970255
547,15.0
548,25.37
360,25.370000000000006
399,0.0
1035,2640764.2709244436
2,1, 8,21, 0,19, 0.00,15.00,SummerDesignDay
7,30.229750000000004
8,2.69079
211,22.840225203929835
212,37.48176470750507
547,15.0
548,21.8
360,21.8
399,0.0
1035,10431088.689355409
2,1, 8,21, 0,19,15.00,30.00,SummerDesignDay
7,29.963500000000005
8,2.69079
211,21.723054739388169
212,36.13722163893044
547,15.0
548,20.33
360,20.33
399,0.0
1035,10805967.531058576
2,1, 8,21, 0,19,30.00,45.00,SummerDesignDay
7,29.697250000000005
8,2.69079
211,22.98824028655227
212,34.71929444312762
547,15.0
548,23.12
360,23.120000000000006
399,0.0
1035,4932873.470579065
2,1, 8,21, 0,19,45.00,60.00,SummerDesignDay
7,29.431000000000006
8,2.69079
211,25.117589493718943
212,33.47324431851257
547,15.0
548,26.81
360,26.809999999999968
399,0.0
1035,0.0
2,1, 8,21, 0,20, 0.00,15.00,SummerDesignDay
7,29.235750000000004
8,2.69079
211,22.784422646975498
212,32.24150785855456
547,15.0
548,22.51
360,22.509999999999999
399,0.0
1035,5952358.937808374
2,1, 8,21, 0,20,15.00,30.00,SummerDesignDay
7,29.0405
8,2.69079
211,25.108131012164504
212,31.140134274417119
547,15.0
548,26.2
360,26.200000000000004
399,0.0
1035,0.0
2,1, 8,21, 0,20,30.00,45.00,SummerDesignDay
7,28.845250000000005
8,2.69079
211,25.546930366826908
212,30.214142658869628
547,15.0
548,25.68
360,25.68
399,0.0
1035,1062739.4749303782
2,1, 8,21, 0,20,45.00,60.00,SummerDesignDay